LAMMPS init.data

10 atoms
9 bonds
1 atom types
1 bond types
-10.0 10.0 xlo xhi
-10.0 10.0 ylo yhi
-10.0 10.0 zlo zhi

Atoms # molecular

1 0 1 -4.50000000 0.00000000 0.00000000
2 0 1 -3.50000000 0.00000000 0.00000000
3 0 1 -2.50000000 0.00000000 0.00000000
4 0 1 -1.50000000 0.00000000 0.00000000
5 0 1 -0.50000000 0.00000000 0.00000000
6 0 1 0.50000000 0.00000000 0.00000000
7 0 1 1.50000000 0.00000000 0.00000000
8 0 1 2.50000000 0.00000000 0.00000000
9 0 1 3.50000000 0.00000000 0.00000000
10 0 1 4.50000000 0.00000000 0.00000000

Masses

   1         1.0

Bonds

1 1 1 2
2 1 2 3
3 1 3 4
4 1 4 5
5 1 5 6
6 1 6 7
7 1 7 8
8 1 8 9
9 1 9 10
